<?xml version="1.0" encoding="UTF-8"?>

<!-- generated on 2025-06-10 14:17:34 by Eclipse SUMO GUI Version 1.22.0
<sumoConfiguration xmlns:xsi="http://www.w3.org/2001/XMLSchema-instance" xsi:noNamespaceSchemaLocation="http://sumo.dlr.de/xsd/sumoConfiguration.xsd">

    <input>
        <net-file value="D:\VSCODE\Autonomous Vehicle and Traffic Optimization\sumo_data\city2\city2.net.xml"/>
        <route-files value="D:\VSCODE\Autonomous Vehicle and Traffic Optimization\sumo_data\city2\city2.rou.xml"/>
    </input>

    <output>
        <tripinfo-output value="D:\VSCODE\Autonomous Vehicle and Traffic Optimization\sumo_data\city2\tripinfo.xml"/>
    </output>

    <time>
        <begin value="0"/>
    </time>

    <processing>
        <no-internal-links value="false"/>
    </processing>

    <traci_server>
        <remote-port value="56198"/>
    </traci_server>

</sumoConfiguration>
-->

<tripinfos xmlns:xsi="http://www.w3.org/2001/XMLSchema-instance" xsi:noNamespaceSchemaLocation="http://sumo.dlr.de/xsd/tripinfo_file.xsd">
    <tripinfo id="13" depart="13.00" departLane="-gneE15_0" departPos="5.10" departSpeed="0.00" departDelay="0.00" arrival="23.00" arrivalLane="-gneE15_0" arrivalPos="96.80" arrivalSpeed="13.07" duration="10.00" routeLength="91.70" waitingTime="0.00" waitingCount="0" stopTime="0.00" timeLoss="3.17" rerouteNo="0" devices="tripinfo_13" vType="DEFAULT_VEHTYPE" speedFactor="1.01" vaporized=""/>
    <tripinfo id="16" depart="16.00" departLane="gneE12_0" departPos="5.10" departSpeed="0.00" departDelay="0.00" arrival="42.00" arrivalLane="gneE8_0" arrivalPos="89.60" arrivalSpeed="14.94" duration="26.00" routeLength="283.23" waitingTime="0.00" waitingCount="0" stopTime="0.00" timeLoss="6.51" rerouteNo="0" devices="tripinfo_16" vType="DEFAULT_VEHTYPE" speedFactor="1.08" vaporized=""/>
    <tripinfo id="39" depart="39.00" departLane="-gneE3_0" departPos="5.10" departSpeed="0.00" departDelay="0.00" arrival="50.00" arrivalLane="-gneE3_0" arrivalPos="89.60" arrivalSpeed="10.60" duration="11.00" routeLength="84.50" waitingTime="0.00" waitingCount="0" stopTime="0.00" timeLoss="3.26" rerouteNo="0" devices="tripinfo_39" vType="DEFAULT_VEHTYPE" speedFactor="0.86" vaporized=""/>
    <tripinfo id="6" depart="6.00" departLane="-gneE11_0" departPos="5.10" departSpeed="0.00" departDelay="0.00" arrival="84.00" arrivalLane="-gneE25_0" arrivalPos="196.80" arrivalSpeed="14.61" duration="78.00" routeLength="885.19" waitingTime="0.00" waitingCount="0" stopTime="0.00" timeLoss="15.47" rerouteNo="0" devices="tripinfo_6" vType="DEFAULT_VEHTYPE" speedFactor="1.06" vaporized=""/>
    <tripinfo id="31" depart="31.00" departLane="gneE13_0" departPos="5.10" departSpeed="0.00" departDelay="0.00" arrival="90.00" arrivalLane="gneE20_0" arrivalPos="192.80" arrivalSpeed="13.25" duration="59.00" routeLength="491.80" waitingTime="14.00" waitingCount="1" stopTime="0.00" timeLoss="24.87" rerouteNo="0" devices="tripinfo_31" vType="DEFAULT_VEHTYPE" speedFactor="1.05" vaporized=""/>
    <tripinfo id="7" depart="7.00" departLane="gneE22_0" departPos="5.10" departSpeed="0.00" departDelay="0.00" arrival="97.00" arrivalLane="gneE12_0" arrivalPos="96.80" arrivalSpeed="12.69" duration="90.00" routeLength="886.12" waitingTime="0.00" waitingCount="0" stopTime="0.00" timeLoss="18.32" rerouteNo="0" devices="tripinfo_7" vType="DEFAULT_VEHTYPE" speedFactor="0.94" vaporized=""/>
    <tripinfo id="22" depart="23.00" departLane="-gneE14_0" departPos="5.10" departSpeed="0.00" departDelay="1.00" arrival="101.00" arrivalLane="-gneE29_0" arrivalPos="292.80" arrivalSpeed="14.18" duration="78.00" routeLength="790.97" waitingTime="6.00" waitingCount="1" stopTime="0.00" timeLoss="21.47" rerouteNo="0" devices="tripinfo_22" vType="DEFAULT_VEHTYPE" speedFactor="1.03" vaporized=""/>
    <tripinfo id="34" depart="34.00" departLane="-gneE33_0" departPos="5.10" departSpeed="0.00" departDelay="0.00" arrival="101.00" arrivalLane="-gneE30_0" arrivalPos="140.10" arrivalSpeed="12.18" duration="67.00" routeLength="713.77" waitingTime="0.00" waitingCount="0" stopTime="0.00" timeLoss="8.59" rerouteNo="0" devices="tripinfo_34" vType="DEFAULT_VEHTYPE" speedFactor="0.89" vaporized=""/>
    <tripinfo id="103" depart="103.00" departLane="-gneE4_0" departPos="5.10" departSpeed="0.00" departDelay="0.00" arrival="119.00" arrivalLane="-gneE13_0" arrivalPos="96.80" arrivalSpeed="15.19" duration="16.00" routeLength="184.60" waitingTime="0.00" waitingCount="0" stopTime="0.00" timeLoss="4.49" rerouteNo="0" devices="tripinfo_103" vType="DEFAULT_VEHTYPE" speedFactor="1.16" vaporized=""/>
    <tripinfo id="51" depart="51.00" departLane="gneE24_0" departPos="5.10" departSpeed="0.00" departDelay="0.00" arrival="121.00" arrivalLane="gneE12_0" arrivalPos="96.80" arrivalSpeed="14.02" duration="70.00" routeLength="585.40" waitingTime="11.00" waitingCount="1" stopTime="0.00" timeLoss="30.25" rerouteNo="0" devices="tripinfo_51" vType="DEFAULT_VEHTYPE" speedFactor="1.09" vaporized=""/>
    <tripinfo id="63" depart="63.00" departLane="-gneE11_0" departPos="5.10" departSpeed="0.00" departDelay="0.00" arrival="123.00" arrivalLane="gneE5_0" arrivalPos="85.60" arrivalSpeed="14.40" duration="60.00" routeLength="381.81" waitingTime="19.00" waitingCount="1" stopTime="0.00" timeLoss="32.06" rerouteNo="0" devices="tripinfo_63" vType="DEFAULT_VEHTYPE" speedFactor="1.05" vaporized=""/>
    <tripinfo id="71" depart="71.00" departLane="-gneE3_0" departPos="5.10" departSpeed="0.00" departDelay="0.00" arrival="130.00" arrivalLane="gneE39_0" arrivalPos="96.80" arrivalSpeed="14.35" duration="59.00" routeLength="678.40" waitingTime="0.00" waitingCount="0" stopTime="0.00" timeLoss="14.94" rerouteNo="0" devices="tripinfo_71" vType="DEFAULT_VEHTYPE" speedFactor="1.12" vaporized=""/>
    <tripinfo id="72" depart="72.00" departLane="-gneE5_0" departPos="5.10" departSpeed="0.00" departDelay="0.00" arrival="132.00" arrivalLane="-gneE26_0" arrivalPos="289.60" arrivalSpeed="12.83" duration="60.00" routeLength="478.92" waitingTime="13.00" waitingCount="1" stopTime="0.00" timeLoss="24.07" rerouteNo="0" devices="tripinfo_72" vType="DEFAULT_VEHTYPE" speedFactor="0.99" vaporized=""/>
    <tripinfo id="127" depart="127.00" departLane="gneE9_0" departPos="5.10" departSpeed="0.00" departDelay="0.00" arrival="138.00" arrivalLane="gneE9_0" arrivalPos="92.80" arrivalSpeed="10.55" duration="11.00" routeLength="87.70" waitingTime="0.00" waitingCount="0" stopTime="0.00" timeLoss="2.75" rerouteNo="0" devices="tripinfo_127" vType="DEFAULT_VEHTYPE" speedFactor="0.83" vaporized=""/>
    <tripinfo id="112" depart="114.00" departLane="-gneE13_0" departPos="5.10" departSpeed="0.00" departDelay="2.00" arrival="150.00" arrivalLane="gneE15_0" arrivalPos="96.80" arrivalSpeed="13.54" duration="36.00" routeLength="387.98" waitingTime="0.00" waitingCount="0" stopTime="0.00" timeLoss="7.94" rerouteNo="0" devices="tripinfo_112" vType="DEFAULT_VEHTYPE" speedFactor="1.02" vaporized=""/>
    <tripinfo id="27" depart="27.00" departLane="gneE22_0" departPos="5.10" departSpeed="0.00" departDelay="0.00" arrival="155.00" arrivalLane="gneE16_0" arrivalPos="193.60" arrivalSpeed="10.30" duration="128.00" routeLength="1181.57" waitingTime="0.00" waitingCount="0" stopTime="0.00" timeLoss="22.59" rerouteNo="0" devices="tripinfo_27" vType="DEFAULT_VEHTYPE" speedFactor="0.83" vaporized=""/>
    <tripinfo id="36" depart="36.00" departLane="gneE38_0" departPos="5.10" departSpeed="0.00" departDelay="0.00" arrival="156.00" arrivalLane="-gneE33_0" arrivalPos="273.79" arrivalSpeed="12.06" duration="120.00" routeLength="1361.92" waitingTime="0.00" waitingCount="0" stopTime="0.00" timeLoss="13.68" rerouteNo="0" devices="tripinfo_36" vType="DEFAULT_VEHTYPE" speedFactor="0.94" vaporized=""/>
    <tripinfo id="119" depart="119.00" departLane="gneE15_0" departPos="5.10" departSpeed="0.00" departDelay="0.00" arrival="158.00" arrivalLane="gneE17_0" arrivalPos="93.60" arrivalSpeed="12.60" duration="39.00" routeLength="389.22" waitingTime="0.00" waitingCount="0" stopTime="0.00" timeLoss="8.97" rerouteNo="0" devices="tripinfo_119" vType="DEFAULT_VEHTYPE" speedFactor="0.97" vaporized=""/>
    <tripinfo id="137" depart="137.00" departLane="-gneE18_0" departPos="5.10" departSpeed="0.00" departDelay="0.00" arrival="167.00" arrivalLane="-gneE17_0" arrivalPos="93.60" arrivalSpeed="11.99" duration="30.00" routeLength="293.04" waitingTime="0.00" waitingCount="0" stopTime="0.00" timeLoss="5.75" rerouteNo="0" devices="tripinfo_137" vType="DEFAULT_VEHTYPE" speedFactor="0.92" vaporized=""/>
    <tripinfo id="115" depart="115.00" departLane="-gneE14_0" departPos="5.10" departSpeed="0.00" departDelay="0.00" arrival="179.00" arrivalLane="-gneE24_0" arrivalPos="89.60" arrivalSpeed="13.60" duration="64.00" routeLength="587.77" waitingTime="8.00" waitingCount="1" stopTime="0.00" timeLoss="20.54" rerouteNo="0" devices="tripinfo_115" vType="DEFAULT_VEHTYPE" speedFactor="1.01" vaporized=""/>
    <tripinfo id="145" depart="145.00" departLane="-gneE10_0" departPos="5.10" departSpeed="0.00" departDelay="0.00" arrival="180.00" arrivalLane="gneE3_0" arrivalPos="89.60" arrivalSpeed="4.80" duration="35.00" routeLength="180.68" waitingTime="10.00" waitingCount="1" stopTime="0.00" timeLoss="23.44" rerouteNo="0" devices="tripinfo_145" vType="DEFAULT_VEHTYPE" speedFactor="1.13" vaporized=""/>
    <tripinfo id="94" depart="94.00" departLane="-gneE20_0" departPos="5.10" departSpeed="0.00" departDelay="0.00" arrival="181.00" arrivalLane="-gneE6_0" arrivalPos="92.80" arrivalSpeed="11.79" duration="87.00" routeLength="776.13" waitingTime="6.00" waitingCount="1" stopTime="0.00" timeLoss="24.48" rerouteNo="0" devices="tripinfo_94" vType="DEFAULT_VEHTYPE" speedFactor="0.94" vaporized=""/>
    <tripinfo id="85" depart="85.00" departLane="gneE6_0" departPos="5.10" departSpeed="0.00" departDelay="0.00" arrival="185.00" arrivalLane="gneE14_0" arrivalPos="196.80" arrivalSpeed="11.33" duration="100.00" routeLength="877.57" waitingTime="5.00" waitingCount="1" stopTime="0.00" timeLoss="24.59" rerouteNo="0" devices="tripinfo_85" vType="DEFAULT_VEHTYPE" speedFactor="0.88" vaporized=""/>
    <tripinfo id="138" depart="138.00" departLane="-gneE16_0" departPos="5.10" departSpeed="0.00" departDelay="0.00" arrival="195.00" arrivalLane="gneE13_0" arrivalPos="96.80" arrivalSpeed="12.79" duration="57.00" routeLength="594.48" waitingTime="0.00" waitingCount="0" stopTime="0.00" timeLoss="9.58" rerouteNo="0" devices="tripinfo_138" vType="DEFAULT_VEHTYPE" speedFactor="0.95" vaporized=""/>
    <tripinfo id="77" depart="77.00" departLane="-gneE17_0" departPos="5.10" departSpeed="0.00" departDelay="0.00" arrival="201.00" arrivalLane="-gneE26_0" arrivalPos="289.60" arrivalSpeed="11.91" duration="124.00" routeLength="1176.82" waitingTime="6.00" waitingCount="1" stopTime="0.00" timeLoss="29.74" rerouteNo="0" devices="tripinfo_77" vType="DEFAULT_VEHTYPE" speedFactor="0.93" vaporized=""/>
    <tripinfo id="55" depart="55.00" departLane="gneE38_0" departPos="5.10" departSpeed="0.00" departDelay="0.00" arrival="203.00" arrivalLane="-gneE30_0" arrivalPos="140.10" arrivalSpeed="14.21" duration="148.00" routeLength="1807.00" waitingTime="0.00" waitingCount="0" stopTime="0.00" timeLoss="19.12" rerouteNo="0" devices="tripinfo_55" vType="DEFAULT_VEHTYPE" speedFactor="1.03" vaporized=""/>
    <tripinfo id="150" depart="150.00" departLane="gneE4_0" departPos="5.10" departSpeed="0.00" departDelay="0.00" arrival="206.00" arrivalLane="gneE12_0" arrivalPos="96.80" arrivalSpeed="15.75" duration="56.00" routeLength="488.39" waitingTime="2.00" waitingCount="1" stopTime="0.00" timeLoss="23.61" rerouteNo="0" devices="tripinfo_150" vType="DEFAULT_VEHTYPE" speedFactor="1.18" vaporized=""/>
    <tripinfo id="128" depart="128.00" departLane="-gneE14_0" departPos="5.10" departSpeed="0.00" departDelay="0.00" arrival="208.00" arrivalLane="-gneE26_0" arrivalPos="289.60" arrivalSpeed="11.57" duration="80.00" routeLength="782.40" waitingTime="0.00" waitingCount="0" stopTime="0.00" timeLoss="13.02" rerouteNo="0" devices="tripinfo_128" vType="DEFAULT_VEHTYPE" speedFactor="0.87" vaporized=""/>
    <tripinfo id="171" depart="171.00" departLane="-gneE11_0" departPos="5.10" departSpeed="0.00" departDelay="0.00" arrival="212.00" arrivalLane="-gneE24_0" arrivalPos="89.60" arrivalSpeed="16.25" duration="41.00" routeLength="486.02" waitingTime="0.00" waitingCount="0" stopTime="0.00" timeLoss="10.20" rerouteNo="0" devices="tripinfo_171" vType="DEFAULT_VEHTYPE" speedFactor="1.17" vaporized=""/>
    <tripinfo id="184" depart="184.00" departLane="-gneE10_0" departPos="5.10" departSpeed="0.00" departDelay="0.00" arrival="213.00" arrivalLane="gneE5_0" arrivalPos="85.60" arrivalSpeed="12.87" duration="29.00" routeLength="280.47" waitingTime="0.00" waitingCount="0" stopTime="0.00" timeLoss="7.84" rerouteNo="0" devices="tripinfo_184" vType="DEFAULT_VEHTYPE" speedFactor="1.02" vaporized=""/>
    <tripinfo id="102" depart="102.00" departLane="-gneE9_0" departPos="5.10" departSpeed="0.00" departDelay="0.00" arrival="214.00" arrivalLane="-gneE26_0" arrivalPos="289.60" arrivalSpeed="12.71" duration="112.00" routeLength="985.29" waitingTime="16.00" waitingCount="1" stopTime="0.00" timeLoss="33.74" rerouteNo="0" devices="tripinfo_102" vType="DEFAULT_VEHTYPE" speedFactor="0.94" vaporized=""/>
    <tripinfo id="214" depart="219.00" departLane="gneE3_0" departPos="5.10" departSpeed="0.00" departDelay="5.00" arrival="231.00" arrivalLane="gneE3_0" arrivalPos="89.60" arrivalSpeed="7.87" duration="12.00" routeLength="84.50" waitingTime="0.00" waitingCount="0" stopTime="0.00" timeLoss="5.44" rerouteNo="0" devices="tripinfo_214" vType="DEFAULT_VEHTYPE" speedFactor="0.96" vaporized=""/>
    <tripinfo id="159" depart="159.00" departLane="-gneE19_0" departPos="5.10" departSpeed="0.00" departDelay="0.00" arrival="238.00" arrivalLane="gneE5_0" arrivalPos="85.60" arrivalSpeed="13.78" duration="79.00" routeLength="781.18" waitingTime="0.00" waitingCount="0" stopTime="0.00" timeLoss="19.20" rerouteNo="0" devices="tripinfo_159" vType="DEFAULT_VEHTYPE" speedFactor="1.01" vaporized=""/>
    <tripinfo id="198" depart="198.00" departLane="-gneE5_0" departPos="5.10" departSpeed="0.00" departDelay="0.00" arrival="244.00" arrivalLane="gneE14_0" arrivalPos="196.80" arrivalSpeed="12.61" duration="46.00" routeLength="483.98" waitingTime="0.00" waitingCount="0" stopTime="0.00" timeLoss="9.91" rerouteNo="0" devices="tripinfo_198" vType="DEFAULT_VEHTYPE" speedFactor="0.97" vaporized=""/>
    <tripinfo id="206" depart="206.00" departLane="gneE23_0" departPos="5.10" departSpeed="0.00" departDelay="0.00" arrival="256.00" arrivalLane="-gneE26_0" arrivalPos="289.60" arrivalSpeed="15.03" duration="50.00" routeLength="589.63" waitingTime="0.00" waitingCount="0" stopTime="0.00" timeLoss="9.42" rerouteNo="0" devices="tripinfo_206" vType="DEFAULT_VEHTYPE" speedFactor="1.10" vaporized=""/>
    <tripinfo id="203" depart="203.00" departLane="-gneE15_0" departPos="5.10" departSpeed="0.00" departDelay="0.00" arrival="266.00" arrivalLane="gneE10_0" arrivalPos="93.60" arrivalSpeed="5.65" duration="63.00" routeLength="691.17" waitingTime="0.00" waitingCount="0" stopTime="0.00" timeLoss="19.34" rerouteNo="0" devices="tripinfo_203" vType="DEFAULT_VEHTYPE" speedFactor="1.18" vaporized=""/>
    <tripinfo id="207" depart="207.00" departLane="-gneE21_0" departPos="5.10" departSpeed="0.00" departDelay="0.00" arrival="272.00" arrivalLane="-gneE11_0" arrivalPos="93.60" arrivalSpeed="11.69" duration="65.00" routeLength="589.11" waitingTime="2.00" waitingCount="1" stopTime="0.00" timeLoss="16.25" rerouteNo="0" devices="tripinfo_207" vType="DEFAULT_VEHTYPE" speedFactor="0.90" vaporized=""/>
    <tripinfo id="120" depart="120.00" departLane="-gneE40_0" departPos="5.10" departSpeed="0.00" departDelay="0.00" arrival="274.00" arrivalLane="gneE15_0" arrivalPos="96.80" arrivalSpeed="11.88" duration="154.00" routeLength="1477.95" waitingTime="3.00" waitingCount="1" stopTime="0.00" timeLoss="29.94" rerouteNo="0" devices="tripinfo_120" vType="DEFAULT_VEHTYPE" speedFactor="0.89" vaporized=""/>
    <tripinfo id="223" depart="223.00" departLane="gneE26_0" departPos="5.10" departSpeed="0.00" departDelay="0.00" arrival="281.00" arrivalLane="gneE10_0" arrivalPos="93.60" arrivalSpeed="8.45" duration="58.00" routeLength="589.63" waitingTime="0.00" waitingCount="0" stopTime="0.00" timeLoss="15.38" rerouteNo="0" devices="tripinfo_223" vType="DEFAULT_VEHTYPE" speedFactor="1.04" vaporized=""/>
    <tripinfo id="240" depart="240.00" departLane="-gneE39_0" departPos="5.10" departSpeed="0.00" departDelay="0.00" arrival="301.00" arrivalLane="-gneE10_0" arrivalPos="93.60" arrivalSpeed="12.45" duration="61.00" routeLength="591.38" waitingTime="0.00" waitingCount="0" stopTime="0.00" timeLoss="10.93" rerouteNo="0" devices="tripinfo_240" vType="DEFAULT_VEHTYPE" speedFactor="0.90" vaporized=""/>
    <tripinfo id="158" depart="158.00" departLane="-gneE40_0" departPos="5.10" departSpeed="0.00" departDelay="0.00" arrival="302.00" arrivalLane="gneE17_0" arrivalPos="93.60" arrivalSpeed="15.68" duration="144.00" routeLength="1775.47" waitingTime="0.00" waitingCount="0" stopTime="0.00" timeLoss="30.88" rerouteNo="0" devices="tripinfo_158" vType="DEFAULT_VEHTYPE" speedFactor="1.15" vaporized=""/>
    <tripinfo id="234" depart="234.00" departLane="gneE25_0" departPos="5.10" departSpeed="0.00" departDelay="0.00" arrival="323.00" arrivalLane="-gneE13_0" arrivalPos="96.80" arrivalSpeed="13.98" duration="89.00" routeLength="787.56" waitingTime="14.00" waitingCount="1" stopTime="0.00" timeLoss="31.84" rerouteNo="0" devices="tripinfo_234" vType="DEFAULT_VEHTYPE" speedFactor="1.04" vaporized=""/>
    <tripinfo id="182" depart="184.00" departLane="-gneE39_0" departPos="5.10" departSpeed="0.00" departDelay="2.00" arrival="325.00" arrivalLane="gneE14_0" arrivalPos="196.80" arrivalSpeed="12.84" duration="141.00" routeLength="1081.67" waitingTime="37.00" waitingCount="1" stopTime="0.00" timeLoss="60.02" rerouteNo="0" devices="tripinfo_182" vType="DEFAULT_VEHTYPE" speedFactor="0.99" vaporized=""/>
    <tripinfo id="220" depart="220.00" departLane="gneE23_0" departPos="5.10" departSpeed="0.00" departDelay="0.00" arrival="333.00" arrivalLane="gneE9_0" arrivalPos="92.80" arrivalSpeed="14.96" duration="113.00" routeLength="986.84" waitingTime="17.00" waitingCount="2" stopTime="0.00" timeLoss="46.62" rerouteNo="0" devices="tripinfo_220" vType="DEFAULT_VEHTYPE" speedFactor="1.09" vaporized=""/>
    <tripinfo id="264" depart="265.00" departLane="-gneE11_0" departPos="5.10" departSpeed="0.00" departDelay="1.00" arrival="338.00" arrivalLane="-gneE22_0" arrivalPos="96.80" arrivalSpeed="13.74" duration="73.00" routeLength="786.74" waitingTime="0.00" waitingCount="0" stopTime="0.00" timeLoss="15.96" rerouteNo="0" devices="tripinfo_264" vType="DEFAULT_VEHTYPE" speedFactor="1.02" vaporized=""/>
    <tripinfo id="149" depart="149.00" departLane="-gneE14_0" departPos="5.10" departSpeed="0.00" departDelay="0.00" arrival="339.00" arrivalLane="gneE39_0" arrivalPos="96.80" arrivalSpeed="12.56" duration="190.00" routeLength="1086.83" waitingTime="78.00" waitingCount="2" stopTime="0.00" timeLoss="103.59" rerouteNo="0" devices="tripinfo_149" vType="DEFAULT_VEHTYPE" speedFactor="0.93" vaporized=""/>
    <tripinfo id="294" depart="294.00" departLane="-gneE39_0" departPos="5.10" departSpeed="0.00" departDelay="0.00" arrival="342.00" arrivalLane="-gneE11_0" arrivalPos="93.60" arrivalSpeed="8.15" duration="48.00" routeLength="490.04" waitingTime="0.00" waitingCount="0" stopTime="0.00" timeLoss="14.71" rerouteNo="0" devices="tripinfo_294" vType="DEFAULT_VEHTYPE" speedFactor="1.08" vaporized=""/>
    <tripinfo id="334" depart="334.00" departLane="gneE11_0" departPos="5.10" departSpeed="0.00" departDelay="0.00" arrival="363.00" arrivalLane="-gneE6_0" arrivalPos="92.80" arrivalSpeed="11.59" duration="29.00" routeLength="280.78" waitingTime="0.00" waitingCount="0" stopTime="0.00" timeLoss="6.18" rerouteNo="0" devices="tripinfo_334" vType="DEFAULT_VEHTYPE" speedFactor="0.91" vaporized=""/>
    <tripinfo id="237" depart="237.00" departLane="-gneE5_0" departPos="5.10" departSpeed="0.00" departDelay="0.00" arrival="369.00" arrivalLane="gneE40_0" arrivalPos="296.80" arrivalSpeed="12.90" duration="132.00" routeLength="1077.57" waitingTime="21.00" waitingCount="1" stopTime="0.00" timeLoss="51.50" rerouteNo="0" devices="tripinfo_237" vType="DEFAULT_VEHTYPE" speedFactor="1.00" vaporized=""/>
    <tripinfo id="325" depart="325.00" departLane="-gneE20_0" departPos="5.10" departSpeed="0.00" departDelay="0.00" arrival="369.00" arrivalLane="-gneE13_0" arrivalPos="96.80" arrivalSpeed="12.01" duration="44.00" routeLength="491.80" waitingTime="0.00" waitingCount="0" stopTime="0.00" timeLoss="4.77" rerouteNo="0" devices="tripinfo_325" vType="DEFAULT_VEHTYPE" speedFactor="0.91" vaporized=""/>
    <tripinfo id="263" depart="264.00" departLane="gneE6_0" departPos="5.10" departSpeed="0.00" departDelay="1.00" arrival="370.00" arrivalLane="-gneE25_0" arrivalPos="196.80" arrivalSpeed="15.82" duration="106.00" routeLength="1082.63" waitingTime="6.00" waitingCount="1" stopTime="0.00" timeLoss="36.30" rerouteNo="0" devices="tripinfo_263" vType="DEFAULT_VEHTYPE" speedFactor="1.17" vaporized=""/>
    <tripinfo id="236" depart="236.00" departLane="-gneE40_0" departPos="5.10" departSpeed="0.00" departDelay="0.00" arrival="376.00" arrivalLane="-gneE25_0" arrivalPos="196.80" arrivalSpeed="14.30" duration="140.00" routeLength="1586.11" waitingTime="0.00" waitingCount="0" stopTime="0.00" timeLoss="30.06" rerouteNo="0" devices="tripinfo_236" vType="DEFAULT_VEHTYPE" speedFactor="1.09" vaporized=""/>
    <tripinfo id="313" depart="313.00" departLane="-gneE20_0" departPos="5.10" departSpeed="0.00" departDelay="0.00" arrival="377.00" arrivalLane="-gneE26_0" arrivalPos="289.60" arrivalSpeed="11.97" duration="64.00" routeLength="686.12" waitingTime="0.00" waitingCount="0" stopTime="0.00" timeLoss="9.29" rerouteNo="0" devices="tripinfo_313" vType="DEFAULT_VEHTYPE" speedFactor="0.94" vaporized=""/>
    <tripinfo id="275" depart="275.00" departLane="gneE24_0" departPos="5.10" departSpeed="0.00" departDelay="0.00" arrival="380.00" arrivalLane="gneE17_0" arrivalPos="93.60" arrivalSpeed="13.41" duration="105.00" routeLength="982.19" waitingTime="11.00" waitingCount="1" stopTime="0.00" timeLoss="32.46" rerouteNo="0" devices="tripinfo_275" vType="DEFAULT_VEHTYPE" speedFactor="1.00" vaporized=""/>
    <tripinfo id="346" depart="346.00" departLane="gneE24_0" departPos="5.10" departSpeed="0.00" departDelay="0.00" arrival="382.00" arrivalLane="gneE5_0" arrivalPos="85.60" arrivalSpeed="13.83" duration="36.00" routeLength="279.13" waitingTime="3.00" waitingCount="1" stopTime="0.00" timeLoss="14.74" rerouteNo="0" devices="tripinfo_346" vType="DEFAULT_VEHTYPE" speedFactor="1.02" vaporized=""/>
    <tripinfo id="266" depart="266.00" departLane="gneE13_0" departPos="5.10" departSpeed="0.00" departDelay="0.00" arrival="385.00" arrivalLane="-gneE26_0" arrivalPos="289.60" arrivalSpeed="14.67" duration="119.00" routeLength="577.86" waitingTime="68.00" waitingCount="1" stopTime="0.00" timeLoss="79.75" rerouteNo="0" devices="tripinfo_266" vType="DEFAULT_VEHTYPE" speedFactor="1.10" vaporized=""/>
    <tripinfo id="301" depart="301.00" departLane="-gneE9_0" departPos="5.10" departSpeed="0.00" departDelay="0.00" arrival="388.00" arrivalLane="gneE3_0" arrivalPos="89.60" arrivalSpeed="4.77" duration="87.00" routeLength="586.66" waitingTime="22.00" waitingCount="1" stopTime="0.00" timeLoss="47.29" rerouteNo="0" devices="tripinfo_301" vType="DEFAULT_VEHTYPE" speedFactor="1.12" vaporized=""/>
    <tripinfo id="365" depart="365.00" departLane="-gneE8_0" departPos="5.10" departSpeed="0.00" departDelay="0.00" arrival="390.00" arrivalLane="gneE19_0" arrivalPos="100.00" arrivalSpeed="13.53" duration="25.00" routeLength="291.80" waitingTime="0.00" waitingCount="0" stopTime="0.00" timeLoss="4.34" rerouteNo="0" devices="tripinfo_365" vType="DEFAULT_VEHTYPE" speedFactor="1.03" vaporized=""/>
    <tripinfo id="252" depart="252.00" departLane="-gneE11_0" departPos="5.10" departSpeed="0.00" departDelay="0.00" arrival="396.00" arrivalLane="gneE18_0" arrivalPos="196.80" arrivalSpeed="11.36" duration="144.00" routeLength="1273.93" waitingTime="2.00" waitingCount="1" stopTime="0.00" timeLoss="31.36" rerouteNo="0" devices="tripinfo_252" vType="DEFAULT_VEHTYPE" speedFactor="0.85" vaporized=""/>
    <tripinfo id="304" depart="311.00" departLane="-gneE15_0" departPos="5.10" departSpeed="0.00" departDelay="7.00" arrival="396.00" arrivalLane="-gneE26_0" arrivalPos="289.60" arrivalSpeed="12.71" duration="85.00" routeLength="879.30" waitingTime="0.00" waitingCount="0" stopTime="0.00" timeLoss="17.47" rerouteNo="0" devices="tripinfo_304" vType="DEFAULT_VEHTYPE" speedFactor="0.99" vaporized=""/>
    <tripinfo id="286" depart="286.00" departLane="gneE29_0" departPos="5.10" departSpeed="0.00" departDelay="0.00" arrival="398.00" arrivalLane="gneE7_0" arrivalPos="92.80" arrivalSpeed="13.67" duration="112.00" routeLength="982.91" waitingTime="14.00" waitingCount="1" stopTime="0.00" timeLoss="39.31" rerouteNo="0" devices="tripinfo_286" vType="DEFAULT_VEHTYPE" speedFactor="1.02" vaporized=""/>
    <tripinfo id="302" depart="302.00" departLane="gneE24_0" departPos="5.10" departSpeed="0.00" departDelay="0.00" arrival="403.00" arrivalLane="gneE19_0" arrivalPos="100.00" arrivalSpeed="13.25" duration="101.00" routeLength="885.39" waitingTime="17.00" waitingCount="1" stopTime="0.00" timeLoss="36.62" rerouteNo="0" devices="tripinfo_302" vType="DEFAULT_VEHTYPE" speedFactor="1.02" vaporized=""/>
    <tripinfo id="210" depart="210.00" departLane="-gneE40_0" departPos="5.10" departSpeed="0.00" departDelay="0.00" arrival="408.00" arrivalLane="gneE18_0" arrivalPos="196.80" arrivalSpeed="13.05" duration="198.00" routeLength="1974.85" waitingTime="16.00" waitingCount="2" stopTime="0.00" timeLoss="56.77" rerouteNo="0" devices="tripinfo_210" vType="DEFAULT_VEHTYPE" speedFactor="1.03" vaporized=""/>
    <tripinfo id="382" depart="382.00" departLane="gneE13_0" departPos="5.10" departSpeed="0.00" departDelay="0.00" arrival="412.00" arrivalLane="gneE5_0" arrivalPos="85.60" arrivalSpeed="13.65" duration="30.00" routeLength="284.60" waitingTime="1.00" waitingCount="1" stopTime="0.00" timeLoss="9.84" rerouteNo="0" devices="tripinfo_382" vType="DEFAULT_VEHTYPE" speedFactor="1.03" vaporized=""/>
    <tripinfo id="366" depart="366.00" departLane="gneE4_0" departPos="5.10" departSpeed="0.00" departDelay="0.00" arrival="419.00" arrivalLane="-gneE24_0" arrivalPos="89.60" arrivalSpeed="12.45" duration="53.00" routeLength="286.33" waitingTime="22.00" waitingCount="1" stopTime="0.00" timeLoss="31.01" rerouteNo="0" devices="tripinfo_366" vType="DEFAULT_VEHTYPE" speedFactor="0.98" vaporized=""/>
    <tripinfo id="383" depart="383.00" departLane="-gneE6_0" departPos="5.10" departSpeed="0.00" departDelay="0.00" arrival="421.00" arrivalLane="gneE21_0" arrivalPos="196.80" arrivalSpeed="13.76" duration="38.00" routeLength="390.87" waitingTime="0.00" waitingCount="0" stopTime="0.00" timeLoss="7.24" rerouteNo="0" devices="tripinfo_383" vType="DEFAULT_VEHTYPE" speedFactor="1.00" vaporized=""/>
    <tripinfo id="285" depart="285.00" departLane="gneE25_0" departPos="5.10" departSpeed="0.00" departDelay="0.00" arrival="422.00" arrivalLane="-gneE6_0" arrivalPos="92.80" arrivalSpeed="6.10" duration="137.00" routeLength="1077.47" waitingTime="35.00" waitingCount="2" stopTime="0.00" timeLoss="67.19" rerouteNo="0" devices="tripinfo_285" vType="DEFAULT_VEHTYPE" speedFactor="1.14" vaporized=""/>
    <tripinfo id="353" depart="355.00" departLane="gneE3_0" departPos="5.10" departSpeed="0.00" departDelay="2.00" arrival="424.00" arrivalLane="gneE14_0" arrivalPos="196.80" arrivalSpeed="13.44" duration="69.00" routeLength="482.61" waitingTime="20.00" waitingCount="1" stopTime="0.00" timeLoss="35.26" rerouteNo="0" devices="tripinfo_353" vType="DEFAULT_VEHTYPE" speedFactor="1.06" vaporized=""/>
    <tripinfo id="248" depart="248.00" departLane="-gneE40_0" departPos="5.10" departSpeed="0.00" departDelay="0.00" arrival="426.00" arrivalLane="-gneE23_0" arrivalPos="193.60" arrivalSpeed="11.50" duration="178.00" routeLength="1383.12" waitingTime="28.00" waitingCount="2" stopTime="0.00" timeLoss="60.82" rerouteNo="0" devices="tripinfo_248" vType="DEFAULT_VEHTYPE" speedFactor="0.88" vaporized=""/>
    <tripinfo id="367" depart="367.00" departLane="gneE15_0" departPos="5.10" departSpeed="0.00" departDelay="0.00" arrival="426.00" arrivalLane="gneE18_0" arrivalPos="196.80" arrivalSpeed="13.00" duration="59.00" routeLength="588.60" waitingTime="0.00" waitingCount="0" stopTime="0.00" timeLoss="14.70" rerouteNo="0" devices="tripinfo_367" vType="DEFAULT_VEHTYPE" speedFactor="1.01" vaporized=""/>
    <tripinfo id="348" depart="348.00" departLane="gneE22_0" departPos="5.10" departSpeed="0.00" departDelay="0.00" arrival="427.00" arrivalLane="gneE5_0" arrivalPos="85.60" arrivalSpeed="12.99" duration="79.00" routeLength="579.85" waitingTime="22.00" waitingCount="1" stopTime="0.00" timeLoss="36.71" rerouteNo="0" devices="tripinfo_348" vType="DEFAULT_VEHTYPE" speedFactor="1.02" vaporized=""/>
    <tripinfo id="283" depart="283.00" departLane="-gneE16_0" departPos="5.10" departSpeed="0.00" departDelay="0.00" arrival="428.00" arrivalLane="gneE7_0" arrivalPos="92.80" arrivalSpeed="11.58" duration="145.00" routeLength="1287.96" waitingTime="9.00" waitingCount="2" stopTime="0.00" timeLoss="37.52" rerouteNo="0" devices="tripinfo_283" vType="DEFAULT_VEHTYPE" speedFactor="0.90" vaporized=""/>