<?xml version="1.0" encoding="UTF-8"?>

<!-- generated on 2025-06-10 15:07:15 by Eclipse SUMO sumo Version 1.22.0
<sumoConfiguration xmlns:xsi="http://www.w3.org/2001/XMLSchema-instance" xsi:noNamespaceSchemaLocation="http://sumo.dlr.de/xsd/sumoConfiguration.xsd">

    <input>
        <net-file value="D:\VSCODE\Autonomous Vehicle and Traffic Optimization\sumo_data\city3\city3.net.xml"/>
        <route-files value="D:\VSCODE\Autonomous Vehicle and Traffic Optimization\sumo_data\city3\city3.rou.xml"/>
    </input>

    <output>
        <tripinfo-output value="D:\VSCODE\Autonomous Vehicle and Traffic Optimization\sumo_data\city3\tripinfo.xml"/>
    </output>

    <time>
        <begin value="0"/>
    </time>

    <processing>
        <no-internal-links value="false"/>
    </processing>

    <traci_server>
        <remote-port value="56960"/>
    </traci_server>

</sumoConfiguration>
-->

<tripinfos xmlns:xsi="http://www.w3.org/2001/XMLSchema-instance" xsi:noNamespaceSchemaLocation="http://sumo.dlr.de/xsd/tripinfo_file.xsd">
    <tripinfo id="7" depart="7.00" departLane="gneE18_0" departPos="5.10" departSpeed="0.00" departDelay="0.00" arrival="33.00" arrivalLane="gneE19_0" arrivalPos="193.60" arrivalSpeed="14.65" duration="26.00" routeLength="286.55" waitingTime="0.00" waitingCount="0" stopTime="0.00" timeLoss="6.87" rerouteNo="0" devices="tripinfo_7" vType="DEFAULT_VEHTYPE" speedFactor="1.08" vaporized=""/>
    <tripinfo id="13" depart="13.00" departLane="-gneE19_0" departPos="5.10" departSpeed="0.00" departDelay="0.00" arrival="40.00" arrivalLane="-gneE18_0" arrivalPos="95.47" arrivalSpeed="13.40" duration="27.00" routeLength="291.71" waitingTime="0.00" waitingCount="0" stopTime="0.00" timeLoss="5.90" rerouteNo="0" devices="tripinfo_13" vType="DEFAULT_VEHTYPE" speedFactor="1.03" vaporized=""/>
    <tripinfo id="57" depart="57.00" departLane="gneE43_0" departPos="5.10" departSpeed="0.00" departDelay="0.00" arrival="65.00" arrivalLane="gneE43_0" arrivalPos="58.50" arrivalSpeed="11.51" duration="8.00" routeLength="53.40" waitingTime="0.00" waitingCount="0" stopTime="0.00" timeLoss="2.76" rerouteNo="0" devices="tripinfo_57" vType="DEFAULT_VEHTYPE" speedFactor="0.89" vaporized=""/>
    <tripinfo id="64" depart="64.00" departLane="gneE41_0" departPos="5.10" departSpeed="0.00" departDelay="0.00" arrival="71.00" arrivalLane="gneE41_0" arrivalPos="48.64" arrivalSpeed="11.25" duration="7.00" routeLength="43.54" waitingTime="0.00" waitingCount="0" stopTime="0.00" timeLoss="2.59" rerouteNo="0" devices="tripinfo_64" vType="DEFAULT_VEHTYPE" speedFactor="0.87" vaporized=""/>
    <tripinfo id="6" depart="6.00" departLane="-gneE11_0" departPos="5.10" departSpeed="0.00" departDelay="0.00" arrival="92.00" arrivalLane="-gneE23_0" arrivalPos="289.60" arrivalSpeed="13.81" duration="86.00" routeLength="1027.09" waitingTime="0.00" waitingCount="0" stopTime="0.00" timeLoss="10.70" rerouteNo="0" devices="tripinfo_6" vType="DEFAULT_VEHTYPE" speedFactor="1.01" vaporized=""/>
    <tripinfo id="92" depart="92.00" departLane="-gneE42_0" departPos="5.10" departSpeed="0.00" departDelay="0.00" arrival="100.00" arrivalLane="-gneE42_0" arrivalPos="64.90" arrivalSpeed="12.42" duration="8.00" routeLength="59.80" waitingTime="0.00" waitingCount="0" stopTime="0.00" timeLoss="2.75" rerouteNo="0" devices="tripinfo_92" vType="DEFAULT_VEHTYPE" speedFactor="0.90" vaporized=""/>
    <tripinfo id="41" depart="41.00" departLane="gneE11_0" departPos="5.10" departSpeed="0.00" departDelay="0.00" arrival="114.00" arrivalLane="gneE45_0" arrivalPos="86.58" arrivalSpeed="13.69" duration="73.00" routeLength="836.70" waitingTime="0.00" waitingCount="0" stopTime="0.00" timeLoss="14.15" rerouteNo="0" devices="tripinfo_41" vType="DEFAULT_VEHTYPE" speedFactor="1.05" vaporized=""/>
    <tripinfo id="100" depart="100.00" departLane="gneE5_0" departPos="5.10" departSpeed="0.00" departDelay="0.00" arrival="117.00" arrivalLane="gneE5_0" arrivalPos="189.60" arrivalSpeed="13.74" duration="17.00" routeLength="184.50" waitingTime="0.00" waitingCount="0" stopTime="0.00" timeLoss="4.27" rerouteNo="0" devices="tripinfo_100" vType="DEFAULT_VEHTYPE" speedFactor="1.04" vaporized=""/>
    <tripinfo id="30" depart="30.00" departLane="gneE7_0" departPos="5.10" departSpeed="0.00" departDelay="0.00" arrival="122.00" arrivalLane="gneE25_0" arrivalPos="96.80" arrivalSpeed="11.46" duration="92.00" routeLength="879.64" waitingTime="0.00" waitingCount="0" stopTime="0.00" timeLoss="14.17" rerouteNo="0" devices="tripinfo_30" vType="DEFAULT_VEHTYPE" speedFactor="0.86" vaporized=""/>
    <tripinfo id="45" depart="45.00" departLane="-gneE2_0" departPos="5.10" departSpeed="0.00" departDelay="0.00" arrival="132.00" arrivalLane="gneE24_0" arrivalPos="192.80" arrivalSpeed="11.94" duration="87.00" routeLength="887.67" waitingTime="3.00" waitingCount="1" stopTime="0.00" timeLoss="16.61" rerouteNo="0" devices="tripinfo_45" vType="DEFAULT_VEHTYPE" speedFactor="0.93" vaporized=""/>
    <tripinfo id="63" depart="63.00" departLane="-gneE11_0" departPos="5.10" departSpeed="0.00" departDelay="0.00" arrival="136.00" arrivalLane="gneE5_0" arrivalPos="189.60" arrivalSpeed="10.52" duration="73.00" routeLength="729.75" waitingTime="0.00" waitingCount="0" stopTime="0.00" timeLoss="7.78" rerouteNo="0" devices="tripinfo_63" vType="DEFAULT_VEHTYPE" speedFactor="0.83" vaporized=""/>
    <tripinfo id="130" depart="130.00" departLane="gneE41_0" departPos="5.10" departSpeed="0.00" departDelay="0.00" arrival="152.00" arrivalLane="gneE44_0" arrivalPos="44.29" arrivalSpeed="14.16" duration="22.00" routeLength="214.51" waitingTime="0.00" waitingCount="0" stopTime="0.00" timeLoss="6.65" rerouteNo="0" devices="tripinfo_130" vType="DEFAULT_VEHTYPE" speedFactor="1.02" vaporized=""/>
    <tripinfo id="119" depart="119.00" departLane="gneE12_0" departPos="5.10" departSpeed="0.00" departDelay="0.00" arrival="159.00" arrivalLane="gneE24_0" arrivalPos="192.80" arrivalSpeed="14.06" duration="40.00" routeLength="487.70" waitingTime="0.00" waitingCount="0" stopTime="0.00" timeLoss="5.05" rerouteNo="0" devices="tripinfo_119" vType="DEFAULT_VEHTYPE" speedFactor="1.02" vaporized=""/>
    <tripinfo id="75" depart="75.00" departLane="gneE7_0" departPos="5.10" departSpeed="0.00" departDelay="0.00" arrival="160.00" arrivalLane="gneE26_0" arrivalPos="296.04" arrivalSpeed="15.36" duration="85.00" routeLength="1078.88" waitingTime="0.00" waitingCount="0" stopTime="0.00" timeLoss="14.78" rerouteNo="0" devices="tripinfo_75" vType="DEFAULT_VEHTYPE" speedFactor="1.15" vaporized=""/>
    <tripinfo id="99" depart="99.00" departLane="gneE7_0" departPos="5.10" departSpeed="0.00" departDelay="0.00" arrival="164.00" arrivalLane="gneE41_0" arrivalPos="48.64" arrivalSpeed="13.78" duration="65.00" routeLength="776.27" waitingTime="0.00" waitingCount="0" stopTime="0.00" timeLoss="9.51" rerouteNo="0" devices="tripinfo_99" vType="DEFAULT_VEHTYPE" speedFactor="1.04" vaporized=""/>
    <tripinfo id="137" depart="137.00" departLane="-gneE21_0" departPos="5.10" departSpeed="0.00" departDelay="0.00" arrival="177.00" arrivalLane="-gneE19_0" arrivalPos="193.60" arrivalSpeed="14.37" duration="40.00" routeLength="487.88" waitingTime="0.00" waitingCount="0" stopTime="0.00" timeLoss="7.12" rerouteNo="0" devices="tripinfo_137" vType="DEFAULT_VEHTYPE" speedFactor="1.08" vaporized=""/>
    <tripinfo id="98" depart="98.00" departLane="-gneE9_0" departPos="5.10" departSpeed="0.00" departDelay="0.00" arrival="185.00" arrivalLane="-gneE13_0" arrivalPos="496.80" arrivalSpeed="15.13" duration="87.00" routeLength="1138.89" waitingTime="0.00" waitingCount="0" stopTime="0.00" timeLoss="10.66" rerouteNo="0" devices="tripinfo_98" vType="DEFAULT_VEHTYPE" speedFactor="1.09" vaporized=""/>
    <tripinfo id="108" depart="108.00" departLane="gneE10_0" departPos="5.10" departSpeed="0.00" departDelay="0.00" arrival="212.00" arrivalLane="gneE32_0" arrivalPos="217.67" arrivalSpeed="11.43" duration="104.00" routeLength="1102.67" waitingTime="0.00" waitingCount="0" stopTime="0.00" timeLoss="13.70" rerouteNo="0" devices="tripinfo_108" vType="DEFAULT_VEHTYPE" speedFactor="0.90" vaporized=""/>
    <tripinfo id="175" depart="175.00" departLane="gneE6_0" departPos="5.10" departSpeed="0.00" departDelay="0.00" arrival="216.00" arrivalLane="gneE18_0" arrivalPos="95.47" arrivalSpeed="11.85" duration="41.00" routeLength="428.15" waitingTime="0.00" waitingCount="0" stopTime="0.00" timeLoss="7.46" rerouteNo="0" devices="tripinfo_175" vType="DEFAULT_VEHTYPE" speedFactor="0.94" vaporized=""/>
    <tripinfo id="73" depart="73.00" departLane="-gneE9_0" departPos="5.10" departSpeed="0.00" departDelay="0.00" arrival="233.00" arrivalLane="gneE33_0" arrivalPos="194.82" arrivalSpeed="11.76" duration="160.00" routeLength="1710.15" waitingTime="0.00" waitingCount="0" stopTime="0.00" timeLoss="24.11" rerouteNo="0" devices="tripinfo_73" vType="DEFAULT_VEHTYPE" speedFactor="0.93" vaporized=""/>
    <tripinfo id="250" depart="250.00" departLane="gneE14_0" departPos="5.10" departSpeed="0.00" departDelay="0.00" arrival="273.00" arrivalLane="-gneE11_0" arrivalPos="130.77" arrivalSpeed="12.50" duration="23.00" routeLength="225.90" waitingTime="0.00" waitingCount="0" stopTime="0.00" timeLoss="4.38" rerouteNo="0" devices="tripinfo_250" vType="DEFAULT_VEHTYPE" speedFactor="0.91" vaporized=""/>
    <tripinfo id="162" depart="162.00" departLane="-gneE11_0" departPos="5.10" departSpeed="0.00" departDelay="0.00" arrival="284.00" arrivalLane="gneE33_0" arrivalPos="194.82" arrivalSpeed="13.02" duration="122.00" routeLength="1452.23" waitingTime="0.00" waitingCount="0" stopTime="0.00" timeLoss="15.89" rerouteNo="0" devices="tripinfo_162" vType="DEFAULT_VEHTYPE" speedFactor="1.02" vaporized=""/>
    <tripinfo id="232" depart="232.00" departLane="-gneE9_0" departPos="5.10" departSpeed="0.00" departDelay="0.00" arrival="307.00" arrivalLane="-gneE2_0" arrivalPos="189.60" arrivalSpeed="11.18" duration="75.00" routeLength="783.67" waitingTime="0.00" waitingCount="0" stopTime="0.00" timeLoss="9.90" rerouteNo="0" devices="tripinfo_232" vType="DEFAULT_VEHTYPE" speedFactor="0.89" vaporized=""/>
    <tripinfo id="306" depart="306.00" departLane="gneE11_0" departPos="5.10" departSpeed="0.00" departDelay="0.00" arrival="318.00" arrivalLane="gneE11_0" arrivalPos="130.77" arrivalSpeed="15.36" duration="12.00" routeLength="125.67" waitingTime="0.00" waitingCount="0" stopTime="0.00" timeLoss="3.50" rerouteNo="0" devices="tripinfo_306" vType="DEFAULT_VEHTYPE" speedFactor="1.18" vaporized=""/>
    <tripinfo id="252" depart="252.00" departLane="-gneE11_0" departPos="5.10" departSpeed="0.00" departDelay="0.00" arrival="320.00" arrivalLane="gneE25_0" arrivalPos="96.80" arrivalSpeed="14.69" duration="68.00" routeLength="828.92" waitingTime="0.00" waitingCount="0" stopTime="0.00" timeLoss="11.83" rerouteNo="0" devices="tripinfo_252" vType="DEFAULT_VEHTYPE" speedFactor="1.10" vaporized=""/>
    <tripinfo id="53" depart="53.00" departLane="-gneE2_0" departPos="5.10" departSpeed="0.00" departDelay="0.00" arrival="326.00" arrivalLane="-gneE7_0" arrivalPos="185.60" arrivalSpeed="5.13" duration="273.00" routeLength="1326.02" waitingTime="150.00" waitingCount="1" stopTime="0.00" timeLoss="177.49" rerouteNo="0" devices="tripinfo_53" vType="DEFAULT_VEHTYPE" speedFactor="1.02" vaporized=""/>
    <tripinfo id="244" depart="244.00" departLane="-gneE9_0" departPos="5.10" departSpeed="0.00" departDelay="0.00" arrival="331.00" arrivalLane="gneE23_0" arrivalPos="289.60" arrivalSpeed="14.85" duration="87.00" routeLength="1126.47" waitingTime="0.00" waitingCount="0" stopTime="0.00" timeLoss="10.60" rerouteNo="0" devices="tripinfo_244" vType="DEFAULT_VEHTYPE" speedFactor="1.09" vaporized=""/>
    <tripinfo id="133" depart="133.00" departLane="gneE13_0" departPos="5.10" departSpeed="0.00" departDelay="0.00" arrival="345.00" arrivalLane="gneE9_0" arrivalPos="192.80" arrivalSpeed="12.69" duration="212.00" routeLength="1128.90" waitingTime="110.00" waitingCount="1" stopTime="0.00" timeLoss="127.42" rerouteNo="0" devices="tripinfo_133" vType="DEFAULT_VEHTYPE" speedFactor="0.97" vaporized=""/>
    <tripinfo id="299" depart="299.00" departLane="-gneE10_0" departPos="5.10" departSpeed="0.00" departDelay="0.00" arrival="355.00" arrivalLane="gneE6_0" arrivalPos="191.47" arrivalSpeed="8.04" duration="56.00" routeLength="589.95" waitingTime="0.00" waitingCount="0" stopTime="0.00" timeLoss="12.42" rerouteNo="0" devices="tripinfo_299" vType="DEFAULT_VEHTYPE" speedFactor="1.01" vaporized=""/>
    <tripinfo id="315" depart="315.00" departLane="gneE6_0" departPos="5.10" departSpeed="0.00" departDelay="0.00" arrival="355.00" arrivalLane="gneE18_0" arrivalPos="95.47" arrivalSpeed="13.45" duration="40.00" routeLength="428.15" waitingTime="0.00" waitingCount="0" stopTime="0.00" timeLoss="7.34" rerouteNo="0" devices="tripinfo_315" vType="DEFAULT_VEHTYPE" speedFactor="0.99" vaporized=""/>
    <tripinfo id="275" depart="275.00" departLane="gneE2_0" departPos="5.10" departSpeed="0.00" departDelay="0.00" arrival="356.00" arrivalLane="gneE24_0" arrivalPos="192.80" arrivalSpeed="13.71" duration="81.00" routeLength="1021.51" waitingTime="0.00" waitingCount="0" stopTime="0.00" timeLoss="11.32" rerouteNo="0" devices="tripinfo_275" vType="DEFAULT_VEHTYPE" speedFactor="1.07" vaporized=""/>
    <tripinfo id="181" depart="181.00" departLane="gneE13_0" departPos="5.10" departSpeed="0.00" departDelay="0.00" arrival="362.00" arrivalLane="gneE17_0" arrivalPos="138.77" arrivalSpeed="12.94" duration="181.00" routeLength="1269.90" waitingTime="62.00" waitingCount="1" stopTime="0.00" timeLoss="83.16" rerouteNo="0" devices="tripinfo_181" vType="DEFAULT_VEHTYPE" speedFactor="0.96" vaporized=""/>
    <tripinfo id="51" depart="51.00" departLane="gneE2_0" departPos="5.10" departSpeed="0.00" departDelay="0.00" arrival="365.00" arrivalLane="gneE18_0" arrivalPos="95.47" arrivalSpeed="12.48" duration="314.00" routeLength="1023.91" waitingTime="212.00" waitingCount="1" stopTime="0.00" timeLoss="232.52" rerouteNo="0" devices="tripinfo_51" vType="DEFAULT_VEHTYPE" speedFactor="0.94" vaporized=""/>
    <tripinfo id="339" depart="339.00" departLane="-gneE26_0" departPos="5.10" departSpeed="0.00" departDelay="0.00" arrival="369.00" arrivalLane="-gneE26_0" arrivalPos="296.04" arrivalSpeed="10.94" duration="30.00" routeLength="290.94" waitingTime="0.00" waitingCount="0" stopTime="0.00" timeLoss="3.69" rerouteNo="0" devices="tripinfo_339" vType="DEFAULT_VEHTYPE" speedFactor="0.82" vaporized=""/>
    <tripinfo id="320" depart="320.00" departLane="gneE6_0" departPos="5.10" departSpeed="0.00" departDelay="0.00" arrival="379.00" arrivalLane="gneE19_0" arrivalPos="193.60" arrivalSpeed="12.35" duration="59.00" routeLength="624.33" waitingTime="0.00" waitingCount="0" stopTime="0.00" timeLoss="10.71" rerouteNo="0" devices="tripinfo_320" vType="DEFAULT_VEHTYPE" speedFactor="0.94" vaporized=""/>
    <tripinfo id="337" depart="337.00" departLane="gneE14_0" departPos="5.10" departSpeed="0.00" departDelay="0.00" arrival="392.00" arrivalLane="gneE23_0" arrivalPos="289.60" arrivalSpeed="15.57" duration="55.00" routeLength="682.92" waitingTime="0.00" waitingCount="0" stopTime="0.00" timeLoss="10.28" rerouteNo="0" devices="tripinfo_337" vType="DEFAULT_VEHTYPE" speedFactor="1.15" vaporized=""/>
    <tripinfo id="259" depart="263.00" departLane="-gneE11_0" departPos="5.10" departSpeed="0.00" departDelay="4.00" arrival="393.00" arrivalLane="gneE19_0" arrivalPos="193.60" arrivalSpeed="13.02" duration="130.00" routeLength="965.71" waitingTime="33.00" waitingCount="1" stopTime="0.00" timeLoss="56.46" rerouteNo="0" devices="tripinfo_259" vType="DEFAULT_VEHTYPE" speedFactor="0.97" vaporized=""/>
    <tripinfo id="396" depart="396.00" departLane="gneE41_0" departPos="5.10" departSpeed="0.00" departDelay="0.00" arrival="416.00" arrivalLane="gneE43_0" arrivalPos="58.50" arrivalSpeed="13.11" duration="20.00" routeLength="169.26" waitingTime="0.00" waitingCount="0" stopTime="0.00" timeLoss="7.02" rerouteNo="0" devices="tripinfo_396" vType="DEFAULT_VEHTYPE" speedFactor="1.00" vaporized=""/>
    <tripinfo id="22" depart="22.00" departLane="-gneE18_0" departPos="5.10" departSpeed="0.00" departDelay="0.00" arrival="428.00" arrivalLane="-gneE3_0" arrivalPos="189.60" arrivalSpeed="13.32" duration="406.00" routeLength="1208.49" waitingTime="301.00" waitingCount="1" stopTime="0.00" timeLoss="321.00" rerouteNo="0" devices="tripinfo_22" vType="DEFAULT_VEHTYPE" speedFactor="1.05" vaporized=""/>
    <tripinfo id="382" depart="382.00" departLane="-gneE9_0" departPos="5.10" departSpeed="0.00" departDelay="0.00" arrival="463.00" arrivalLane="gneE5_0" arrivalPos="189.60" arrivalSpeed="15.97" duration="81.00" routeLength="987.67" waitingTime="3.00" waitingCount="1" stopTime="0.00" timeLoss="18.52" rerouteNo="0" devices="tripinfo_382" vType="DEFAULT_VEHTYPE" speedFactor="1.16" vaporized=""/>
    <tripinfo id="414" depart="417.00" departLane="gneE12_0" departPos="5.10" departSpeed="0.00" departDelay="3.00" arrival="465.00" arrivalLane="gneE43_0" arrivalPos="58.50" arrivalSpeed="14.06" duration="48.00" routeLength="561.85" waitingTime="0.00" waitingCount="0" stopTime="0.00" timeLoss="9.13" rerouteNo="0" devices="tripinfo_414" vType="DEFAULT_VEHTYPE" speedFactor="1.07" vaporized=""/>
    <tripinfo id="377" depart="377.00" departLane="gneE7_0" departPos="5.10" departSpeed="0.00" departDelay="0.00" arrival="476.00" arrivalLane="gneE26_0" arrivalPos="296.04" arrivalSpeed="13.01" duration="99.00" routeLength="1078.88" waitingTime="0.00" waitingCount="0" stopTime="0.00" timeLoss="14.32" rerouteNo="0" devices="tripinfo_377" vType="DEFAULT_VEHTYPE" speedFactor="0.95" vaporized=""/>
    <tripinfo id="388" depart="388.00" departLane="gneE7_0" departPos="5.10" departSpeed="0.00" departDelay="0.00" arrival="480.00" arrivalLane="gneE46_0" arrivalPos="93.16" arrivalSpeed="15.52" duration="92.00" routeLength="1136.49" waitingTime="0.00" waitingCount="0" stopTime="0.00" timeLoss="18.95" rerouteNo="0" devices="tripinfo_388" vType="DEFAULT_VEHTYPE" speedFactor="1.14" vaporized=""/>
    <tripinfo id="404" depart="404.00" departLane="-gneE9_0" departPos="5.10" departSpeed="0.00" departDelay="0.00" arrival="481.00" arrivalLane="gneE19_0" arrivalPos="193.60" arrivalSpeed="13.10" duration="77.00" routeLength="826.16" waitingTime="0.00" waitingCount="0" stopTime="0.00" timeLoss="13.93" rerouteNo="0" devices="tripinfo_404" vType="DEFAULT_VEHTYPE" speedFactor="0.96" vaporized=""/>
    <tripinfo id="385" depart="385.00" departLane="gneE13_0" departPos="5.10" departSpeed="0.00" departDelay="0.00" arrival="487.00" arrivalLane="-gneE3_0" arrivalPos="189.60" arrivalSpeed="15.63" duration="102.00" routeLength="1329.15" waitingTime="0.00" waitingCount="0" stopTime="0.00" timeLoss="15.23" rerouteNo="0" devices="tripinfo_385" vType="DEFAULT_VEHTYPE" speedFactor="1.13" vaporized=""/>
    <tripinfo id="471" depart="471.00" departLane="gneE30_0" departPos="5.10" departSpeed="0.00" departDelay="0.00" arrival="489.00" arrivalLane="gneE34_0" arrivalPos="92.27" arrivalSpeed="12.46" duration="18.00" routeLength="187.27" waitingTime="0.00" waitingCount="0" stopTime="0.00" timeLoss="2.98" rerouteNo="0" devices="tripinfo_471" vType="DEFAULT_VEHTYPE" speedFactor="0.94" vaporized=""/>
</tripinfos>
